                         Program Version 5.0.3 -  RELEASE  -
|  1> # input to generate an atomic fitting density for Xe
|  2> # this file is used internally by ORCA
|  3> #
|  4> # atomic ground state (S=1): 1s2 2s2 2p6 3s2 3p6 4s2 3d10 4p6 5s2 4d10 5p6
|  5> #
|  6> ! RHF AllowRHF def2-SVP def2/J  NoMulliken NoLoewdin NoMayer NoPrintMOs
|  7>
|  8> %output print[p_atomdensfit] 2 end
|  9>
| 10> %scf
| 11>   guess hcore
| 12>   maxiter 1000
| 13>   maxdisk 500000
| 14>   SCFMode Conventional
| 15>   lshift 1.000000
| 16>   hftyp rohf
| 17>   rohf_case sahf
| 18>   rohf_numop   2
| 19>   rohf_norb[1] 3
| 20>   rohf_nel[1]  6
| 21> end
| 22>
| 23> %basis
| 24>   NewECP 54
| 25>     N_core 28
| 26>     lmax f
| 27>     s 7
| 28>       1      40.0051840000     49.9979620000  2
| 29>       2      17.8122140000    281.0133030000  2
| 30>       3       9.3041500000     61.5382550000  2
| 31>       4      20.8815570000     23.0892950000  2
| 32>       5      20.7834430000     30.0744750000  2
| 33>       6       5.2533890000      0.2882270000  2
| 34>       7       5.3611880000      0.3869240000  2
| 35>     p 8
| 36>       1      15.7017720000     67.4391420000  2
| 37>       2      15.2586080000    134.8747110000  2
| 38>       3       9.2921840000     14.6633000000  2
| 39>       4       8.5590030000     29.3547300000  2
| 40>       5      20.8815570000     23.0892950000  2
| 41>       6      20.7834430000     30.0744750000  2
| 42>       7       5.2533890000      0.2882270000  2
| 43>       8       5.3611880000      0.3869240000  2
| 44>     d 10
| 45>       1      15.1856000000     35.4369080000  2
| 46>       2      14.2845000000     53.1957720000  2
| 47>       3       7.1218890000      9.0462320000  2
| 48>       4       6.9919630000     13.2236810000  2
| 49>       5       0.6239460000      0.0848530000  2
| 50>       6       0.6472840000      0.0441550000  2
| 51>       7      20.8815570000     23.0892950000  2
| 52>       8      20.7834430000     30.0744750000  2
| 53>       9       5.2533890000      0.2882270000  2
| 54>      10       5.3611880000      0.3869240000  2
| 55>     f 4
| 56>       1      20.8815570000    -23.0892950000  2
| 57>       2      20.7834430000    -30.0744750000  2
| 58>       3       5.2533890000     -0.2882270000  2
| 59>       4       5.3611880000     -0.3869240000  2
| 60>   end
| 61>   NewGTO 54
| 62>     s 5
| 63>      1    6420.2481656000      0.0005803743
| 64>      2     983.5453066400      0.0037590265
| 65>      3     219.4388136400      0.0106482436
| 66>      4      23.0125878070     -0.3399766589
| 67>      5      18.0483244900      1.3305328819
| 68>     s 2
| 69>      1      11.7525501630      0.6426392401
| 70>      2       6.2390917199      0.3743679621
| 71>     s 1
| 72>      1       2.6257211320      1.0000000000
| 73>     s 1
| 74>      1       1.2905042943      1.0000000000
| 75>     s 1
| 76>      1       0.3620418506      1.0000000000
| 77>     s 1
| 78>      1       0.1406988809      1.0000000000
| 79>     p 3
| 80>      1     193.8143254500      0.0040702352
| 81>      2      21.7252280860      0.2448817432
| 82>      3       9.8891605641     -1.1935854566
| 83>     p 4
| 84>      1      13.9606838260     -0.0377633548
| 85>      2       4.0928947097      0.2717857050
| 86>      3       2.2546815460      0.5382425559
| 87>      4       1.1546596184      0.2635338256
| 88>     p 1
| 89>      1       0.5232192313      1.0000000000
| 90>     p 1
| 91>      1       0.2194556980      1.0000000000
| 92>     p 1
| 93>      1       0.0861589968      1.0000000000
| 94>     d 6
| 95>      1     135.6030003800      0.0008766390
| 96>      2      38.7270626920      0.0065204533
| 97>      3      15.3773280890     -0.0099344899
| 98>      4       5.2602537686      0.2450969609
| 99>      5       2.6590627424      0.4757695225
|100>      6       1.2938205124      0.3857760473
|101>     d 1
|102>      1       0.5805083014      1.0000000000
|103>     d 1
|104>      1       0.1800000000      1.0000000000
|105>   end
|106>   NewAuxGTO 54
|107>     S 1
|108>      1 1310.72 1.0
|109>     S 1
|110>      1  655.36 1.0
|111>     S 1
|112>      1  327.68 1.0
|113>     S 1
|114>      1  163.84 1.0
|115>     S 1
|116>      1   81.82 1.0
|117>     S 1
|118>      1   40.96 1.0
|119>     S 1
|120>      1   20.48 1.0
|121>     S 1
|122>      1   10.24 1.0
|123>     S 1
|124>      1    5.12 1.0
|125>     S 1
|126>      1    2.56 1.0
|127>     S 1
|128>      1    1.28 1.0
|129>     S 1
|130>      1    0.64 1.0
|131>     S 1
|132>      1    0.32 1.0
|133>     S 1
|134>      1    0.16 1.0
|135>     S 1
|136>      1    0.08 1.0
|137>     S 1
|138>      1    0.04 1.0
|139>     S 1
|140>      1    0.02 1.0
|141>     S 1
|142>      1    0.01 1.0
|143>   end
|144> end
|145>
|146> * xyz 0 1
|147> 54  0.0 0.0 0.0
|148> *
|149>
|150>
|151>                          ****END OF INPUT****

CARTESIAN COORDINATES (ANGSTROEM)
---------------------------------
  Xe     0.000000    0.000000    0.000000

 Total Charge           Charge          ....    0
 Multiplicity           Mult            ....    1
 Number of Electrons    NEL             ....   26
 Basis Dimension        Dim             ....   36

ORBITAL ENERGIES
----------------

  NO   OCC          E(Eh)            E(eV)
   0   2.0000      -8.399818      -228.5707
   1   2.0000      -5.881575      -160.0458
   2   2.0000      -5.881575      -160.0458
   3   2.0000      -5.881575      -160.0458
   4   2.0000      -2.663854       -72.4871
   5   2.0000      -2.663854       -72.4871
   6   2.0000      -2.663854       -72.4871
   7   2.0000      -2.663854       -72.4871
   8   2.0000      -2.663854       -72.4871
   9   2.0000      -1.009353       -27.4659
  10   2.0000      -0.708029       -19.2664
  11   2.0000      -0.708029       -19.2664
  12   2.0000      -0.708029       -19.2664
  13   0.0000       0.298581         8.1248
  14   0.0000       0.298581         8.1248
  15   0.0000       0.298581         8.1248
  16   0.0000       0.353058         9.6072
  17   0.0000       0.353058         9.6072

FINAL SINGLE POINT ENERGY      -328.298393667059

DIPOLE MOMENT
-------------
                                X             Y             Z
Electronic contribution:      0.00000      -0.00000       0.00000
Nuclear contribution   :      0.00000       0.00000       0.00000
                        -----------------------------------------
Total Dipole Moment    :      0.00000      -0.00000       0.00000
                        -----------------------------------------
Magnitude (a.u.)       :      0.00000
Magnitude (Debye)      :      0.00000

Rotational constants in cm-1:     0.000000     0.000000     0.000000
Rotational constants in MHz :     0.000000     0.000000     0.000000

                             ****ORCA TERMINATED NORMALLY****
TOTAL RUN TIME: 0 days 0 hours 0 minutes 4 seconds 136 msec
